      -----------------------------------------------------------      
     |                   =====================                   |     
     |                           x T B                           |     
     |                   =====================                   |     
     |                         S. Grimme                         |     
     |          Mulliken Center for Theoretical Chemistry        |     
     |                    University of Bonn                     |     
      -----------------------------------------------------------      

   * xtb version 6.5.0 (unknown) compiled by 'fpultar@eu-g1-001-4' on 2022-11-16

   xtb is free software: you can redistribute it and/or modify it under
   the terms of the GNU Lesser General Public License as published by
   the Free Software Foundation, either version 3 of the License, or
   (at your option) any later version.
   
   xtb is distributed in the hope that it will be useful,
   but WITHOUT ANY WARRANTY; without even the implied warranty of
   MERCHANTABILITY or FITNESS FOR A PARTICULAR PURPOSE.  See the
   GNU Lesser General Public License for more details.
   
   Cite this work as:
   * C. Bannwarth, E. Caldeweyher, S. Ehlert, A. Hansen, P. Pracht,
     J. Seibert, S. Spicher, S. Grimme, WIREs Comput. Mol. Sci., 2020, 11,
     e01493. DOI: 10.1002/wcms.1493
   
   for GFN2-xTB:
   * C. Bannwarth, S. Ehlert and S. Grimme., J. Chem. Theory Comput., 2019,
     15, 1652-1671. DOI: 10.1021/acs.jctc.8b01176
   for GFN1-xTB:
   * S. Grimme, C. Bannwarth, P. Shushkov, J. Chem. Theory Comput., 2017,
     13, 1989-2009. DOI: 10.1021/acs.jctc.7b00118
   for GFN0-xTB:
   * P. Pracht, E. Caldeweyher, S. Ehlert, S. Grimme, ChemRxiv, 2019, preprint.
     DOI: 10.26434/chemrxiv.8326202.v1
   for GFN-FF:
   * S. Spicher and S. Grimme, Angew. Chem. Int. Ed., 2020, 59, 15665-15673.
     DOI: 10.1002/anie.202004239
   
   for ALPB and GBSA implicit solvation:
   * S. Ehlert, M. Stahn, S. Spicher, S. Grimme, J. Chem. Theory Comput.,
     2021, 17, 4250-4261. DOI: 10.1021/acs.jctc.1c00471
   
   for DFT-D4:
   * E. Caldeweyher, C. Bannwarth and S. Grimme, J. Chem. Phys., 2017,
     147, 034112. DOI: 10.1063/1.4993215
   * E. Caldeweyher, S. Ehlert, A. Hansen, H. Neugebauer, S. Spicher,
     C. Bannwarth and S. Grimme, J. Chem. Phys., 2019, 150, 154122.
     DOI: 10.1063/1.5090222
   * E. Caldeweyher, J.-M. Mewes, S. Ehlert and S. Grimme, Phys. Chem. Chem. Phys.
     2020, 22, 8499-8512. DOI: 10.1039/D0CP00502A
   
   for sTDA-xTB:
   * S. Grimme and C. Bannwarth, J. Chem. Phys., 2016, 145, 054103.
     DOI: 10.1063/1.4959605
   
   in the mass-spec context:
   * V. Asgeirsson, C. Bauer and S. Grimme, Chem. Sci., 2017, 8, 4879.
     DOI: 10.1039/c7sc00601b
   * J. Koopman and S. Grimme, ACS Omega 2019, 4, 12, 15120-15133.
     DOI: 10.1021/acsomega.9b02011
   
   for metadynamics refer to:
   * S. Grimme, J. Chem. Theory Comput., 2019, 155, 2847-2862
     DOI: 10.1021/acs.jctc.9b00143
   
   for SPH calculations refer to:
   * S. Spicher and S. Grimme, J. Chem. Theory Comput., 2021, 17, 1701-1714
     DOI: 10.1021/acs.jctc.0c01306
   
   with help from (in alphabetical order)
   P. Atkinson, C. Bannwarth, F. Bohle, G. Brandenburg, E. Caldeweyher
   M. Checinski, S. Dohm, S. Ehlert, S. Ehrlich, I. Gerasimov, C. Hölzer
   A. Katbashev, J. Koopman, C. Lavigne, S. Lehtola, F. März, M. Müller,
   F. Musil, H. Neugebauer, J. Pisarek, C. Plett, P. Pracht, F. Pultar,
   J. Seibert, P. Shushkov, S. Spicher, M. Stahn, M. Steiner, T. Strunk,
   J. Stückrath, T. Rose, and J. Unsleber
   
 * started run on 2022/11/16 at 13:08:01.819     

           -------------------------------------------------
          |                Calculation Setup                |
           -------------------------------------------------

          program call               : xtb benzene.coord -I pcem.input
          hostname                   : eu-login-26
          coordinate file            : benzene.coord
          omp threads                :                     1

   ID    Z sym.   atoms
    1    1 H      1, 4, 6, 8, 10, 12
    2    6 C      2, 3, 5, 7, 9, 11

           -------------------------------------------------
          |                 G F N 2 - x T B                 |
           -------------------------------------------------

        Reference                      10.1021/acs.jctc.8b01176
      * Hamiltonian:
        H0-scaling (s, p, d)           1.850000    2.230000    2.230000
        zeta-weighting                 0.500000
      * Dispersion:
        s8                             2.700000
        a1                             0.520000
        a2                             5.000000
        s9                             5.000000
      * Repulsion:
        kExp                           1.500000    1.000000
        rExp                           1.000000
      * Coulomb:
        alpha                          2.000000
        third order                    shell-resolved
        anisotropic                    true
        a3                             3.000000
        a5                             4.000000
        cn-shift                       1.200000
        cn-exp                         4.000000
        max-rad                        5.000000


          ...................................................
          :                      SETUP                      :
          :.................................................:
          :  # basis functions                  30          :
          :  # atomic orbitals                  30          :
          :  # shells                           18          :
          :  # electrons                        30          :
          :  max. iterations                   250          :
          :  Hamiltonian                  GFN2-xTB          :
          :  restarted?                      false          :
          :  GBSA solvation                  false          :
          :  PC potential                     true          :
          :  -> # point charges                378          :
          :  -> sum of PC                0.0000000     e    :
          :  electronic temp.          300.0000000     K    :
          :  accuracy                    1.0000000          :
          :  -> integral cutoff          0.2500000E+02      :
          :  -> integral neglect         0.1000000E-07      :
          :  -> SCF convergence          0.1000000E-05 Eh   :
          :  -> wf. convergence          0.1000000E-03 e    :
          :  Broyden damping             0.4000000          :
          ...................................................

 iter      E             dE          RMSdq      gap      omega  full diag
   1    -16.1503204 -0.161503E+02  0.415E+00    4.43       0.0  T
   2    -16.1685758 -0.182555E-01  0.246E+00    4.63       1.0  T
   3    -16.1637475  0.482837E-02  0.111E+00    4.41       1.0  T
   4    -16.1712110 -0.746349E-02  0.264E-01    4.60       1.0  T
   5    -16.1717277 -0.516733E-03  0.750E-02    4.60       1.0  T
   6    -16.1717753 -0.476364E-04  0.288E-02    4.58       1.0  T
   7    -16.1717752  0.165560E-06  0.538E-03    4.58       5.4  T
   8    -16.1717756 -0.401709E-06  0.138E-03    4.58      20.9  T
   9    -16.1717756 -0.987458E-08  0.543E-04    4.58      53.1  T
  10    -16.1717756 -0.162877E-08  0.106E-04    4.58     272.1  T

   *** convergence criteria satisfied after 10 iterations ***

         #    Occupation            Energy/Eh            Energy/eV
      -------------------------------------------------------------
         1        2.0000           -0.6275925             -17.0777
       ...           ...                  ...                  ...
         9        2.0000           -0.4661037             -12.6833
        10        2.0000           -0.4646932             -12.6449
        11        2.0000           -0.4539079             -12.3515
        12        2.0000           -0.4119844             -11.2107
        13        2.0000           -0.4067253             -11.0676
        14        2.0000           -0.3904097             -10.6236
        15        2.0000           -0.3817925             -10.3891 (HOMO)
        16                         -0.2133647              -5.8059 (LUMO)
        17                         -0.2123180              -5.7775
        18                         -0.0885522              -2.4096
        19                          0.1187195               3.2305
        20                          0.1412873               3.8446
       ...                                ...                  ...
        30                          0.6589788              17.9317
      -------------------------------------------------------------
                  HL-Gap            0.1684278 Eh            4.5832 eV
             Fermi-level           -0.2975786 Eh           -8.0975 eV

 SCC (total)                   0 d,  0 h,  0 min,  0.008 sec
 SCC setup                      ...        0 min,  0.000 sec (  2.474%)
 Dispersion                     ...        0 min,  0.000 sec (  1.170%)
 classical contributions        ...        0 min,  0.000 sec (  0.386%)
 integral evaluation            ...        0 min,  0.001 sec ( 14.946%)
 iterations                     ...        0 min,  0.003 sec ( 43.013%)
 molecular gradient             ...        0 min,  0.003 sec ( 36.344%)
 printout                       ...        0 min,  0.000 sec (  1.531%)

         :::::::::::::::::::::::::::::::::::::::::::::::::::::
         ::                     SUMMARY                     ::
         :::::::::::::::::::::::::::::::::::::::::::::::::::::
         :: total energy             -15.869524505198 Eh    ::
         :: gradient norm              0.050922286677 Eh/a0 ::
         :: HOMO-LUMO gap              4.583152943713 eV    ::
         ::.................................................::
         :: SCC energy               -16.171775568000 Eh    ::
         :: -> isotropic ES            0.002003097342 Eh    ::
         :: -> anisotropic ES          0.002565691408 Eh    ::
         :: -> anisotropic XC          0.013012122002 Eh    ::
         :: -> dispersion             -0.007978898301 Eh    ::
         :: repulsion energy           0.302244116518 Eh    ::
         :: add. restraining           0.000000000000 Eh    ::
         :: total charge               0.000000000000 e     ::
         :::::::::::::::::::::::::::::::::::::::::::::::::::::

           -------------------------------------------------
          |                Property Printout                |
           -------------------------------------------------

    * Orbital Energies and Occupations

         #    Occupation            Energy/Eh            Energy/eV
      -------------------------------------------------------------
         1        2.0000           -0.6275925             -17.0777
       ...           ...                  ...                  ...
         3        2.0000           -0.5959457             -16.2165
         4        2.0000           -0.5554780             -15.1153
         5        2.0000           -0.5543833             -15.0855
         6        2.0000           -0.5165143             -14.0551
         7        2.0000           -0.4811480             -13.0927
         8        2.0000           -0.4766832             -12.9712
         9        2.0000           -0.4661037             -12.6833
        10        2.0000           -0.4646932             -12.6449
        11        2.0000           -0.4539079             -12.3515
        12        2.0000           -0.4119844             -11.2107
        13        2.0000           -0.4067253             -11.0676
        14        2.0000           -0.3904097             -10.6236
        15        2.0000           -0.3817925             -10.3891 (HOMO)
        16                         -0.2133647              -5.8059 (LUMO)
        17                         -0.2123180              -5.7775
        18                         -0.0885522              -2.4096
        19                          0.1187195               3.2305
        20                          0.1412873               3.8446
        21                          0.1664253               4.5287
        22                          0.1765255               4.8035
        23                          0.2049527               5.5770
        24                          0.2136067               5.8125
        25                          0.3897036              10.6044
        26                          0.4128641              11.2346
       ...                                ...                  ...
        30                          0.6589788              17.9317
      -------------------------------------------------------------
                  HL-Gap            0.1684278 Eh            4.5832 eV
             Fermi-level           -0.2975786 Eh           -8.0975 eV

     #   Z          covCN         q      C6AA      α(0)
     1   1 H        0.925     0.021     2.721     2.580
     2   6 C        2.915    -0.044    29.097     8.845
     3   6 C        2.917    -0.032    28.801     8.800
     4   1 H        0.925     0.024     2.674     2.557
     5   6 C        2.912    -0.030    28.756     8.793
     6   1 H        0.925     0.038     2.477     2.461
     7   6 C        2.925    -0.062    29.534     8.912
     8   1 H        0.925     0.034     2.529     2.487
     9   6 C        2.908    -0.053    29.325     8.880
    10   1 H        0.925     0.034     2.531     2.488
    11   6 C        2.921     0.015    27.678     8.627
    12   1 H        0.925     0.056     2.248     2.345

 Mol. C6AA /au·bohr⁶  :       1744.168165
 Mol. C8AA /au·bohr⁸  :      42633.812844
 Mol. α(0) /au        :         67.775436


Wiberg/Mayer (AO) data.
largest (>0.10) Wiberg bond orders for each atom

 ---------------------------------------------------------------------------
     #   Z sym  total        # sym  WBO       # sym  WBO       # sym  WBO
 ---------------------------------------------------------------------------
     1   1 H    1.000 --     2 C    0.971
     2   6 C    3.990 --    11 C    1.440     3 C    1.439     1 H    0.971
                             7 C    0.113
     3   6 C    3.991 --     5 C    1.442     2 C    1.439     4 H    0.971
                             9 C    0.113
     4   1 H    0.999 --     3 C    0.971
     5   6 C    3.991 --     3 C    1.442     7 C    1.437     6 H    0.970
                            11 C    0.116
     6   1 H    0.999 --     5 C    0.970
     7   6 C    3.991 --     9 C    1.445     5 C    1.437     8 H    0.971
                             2 C    0.113
     8   1 H    0.999 --     7 C    0.971
     9   6 C    3.991 --     7 C    1.445    11 C    1.434    10 H    0.971
                             3 C    0.113
    10   1 H    0.999 --     9 C    0.971
    11   6 C    3.985 --     2 C    1.440     9 C    1.434    12 H    0.968
                             5 C    0.116
    12   1 H    0.997 --    11 C    0.968
 ---------------------------------------------------------------------------

Topologies differ in total number of bonds
Writing topology from bond orders to xtbtopo.mol

molecular dipole:
                 x           y           z       tot (Debye)
 q only:       -0.009      -0.104      -0.155
   full:        0.030      -0.119      -0.090       0.386
molecular quadrupole (traceless):
                xx          xy          yy          xz          yz          zz
 q only:       -1.608       0.035      -5.311      -0.429      -0.390       6.918
  q+dip:       -1.848       3.729      -4.693      -1.682       1.708       6.541
   full:       -0.681       1.821      -4.758      -1.353       1.413       5.439


           -------------------------------------------------
          | TOTAL ENERGY              -15.869524505198 Eh   |
          | GRADIENT NORM               0.050922286677 Eh/α |
          | HOMO-LUMO GAP               4.583152943713 eV   |
           -------------------------------------------------

------------------------------------------------------------------------
 * finished run on 2022/11/16 at 13:08:01.878     
------------------------------------------------------------------------
 total:
 * wall-time:     0 d,  0 h,  0 min,  0.059 sec
 *  cpu-time:     0 d,  0 h,  0 min,  0.023 sec
 * ratio c/w:     0.380 speedup
 SCF:
 * wall-time:     0 d,  0 h,  0 min,  0.015 sec
 *  cpu-time:     0 d,  0 h,  0 min,  0.009 sec
 * ratio c/w:     0.601 speedup

